<?xml version="1.0"?>
<VTKFile type="UnstructuredGrid" version="0.1" byte_order="LittleEndian">
<UnstructuredGrid>
<Piece NumberOfPoints="209" NumberOfCells="370">
<Points>
<DataArray type="Float64" NumberOfComponents="3" format="ascii">
0.000000000000000e+00 0.000000000000000e+00 0.000000000000000e+00 0.000000000000000e+00 1.000000000000000e+00 0.000000000000000e+00 -9.000000000000000e-01 1.000000000000000e+00 0.000000000000000e+00 -9.000000000000000e-01 0.000000000000000e+00 0.000000000000000e+00 9.000000000000000e-01 0.000000000000000e+00 0.000000000000000e+00 9.000000000000000e-01 1.000000000000000e+00 0.000000000000000e+00 0.000000000000000e+00 9.999999999981467e-02 0.000000000000000e+00 0.000000000000000e+00 1.999999999995579e-01 0.000000000000000e+00 0.000000000000000e+00 2.999999999992664e-01 0.000000000000000e+00 0.000000000000000e+00 3.999999999989749e-01 0.000000000000000e+00 0.000000000000000e+00 4.999999999986943e-01 0.000000000000000e+00 0.000000000000000e+00 5.999999999989468e-01 0.000000000000000e+00 0.000000000000000e+00 6.999999999992100e-01 0.000000000000000e+00 0.000000000000000e+00 7.999999999994734e-01 0.000000000000000e+00 0.000000000000000e+00 8.999999999997368e-01 0.000000000000000e+00 -9.000000000000000e-01 8.999999999997368e-01 0.000000000000000e+00 -9.000000000000000e-01 7.999999999994734e-01 0.000000000000000e+00 -9.000000000000000e-01 6.999999999992100e-01 0.000000000000000e+00 -9.000000000000000e-01 5.999999999989468e-01 0.000000000000000e+00 -9.000000000000000e-01 4.999999999986943e-01 0.000000000000000e+00 -9.000000000000000e-01 3.999999999989749e-01 0.000000000000000e+00 -9.000000000000000e-01 2.999999999992664e-01 0.000000000000000e+00 -9.000000000000000e-01 1.999999999995579e-01 0.000000000000000e+00 -9.000000000000000e-01 9.999999999981467e-02 0.000000000000000e+00 -9.999999999999999e-02 1.000000000000000e+00 0.000000000000000e+00 -2.000000000000000e-01 1.000000000000000e+00 0.000000000000000e+00 -3.000000000000000e-01 1.000000000000000e+00 0.000000000000000e+00 -4.000000000000000e-01 1.000000000000000e+00 0.000000000000000e+00 -5.000000000000000e-01 1.000000000000000e+00 0.000000000000000e+00 -6.000000000000000e-01 1.000000000000000e+00 0.000000000000000e+00 -7.000000000000001e-01 1.000000000000000e+00 0.000000000000000e+00 -7.999999999999999e-01 1.000000000000000e+00 0.000000000000000e+00 -9.999999999999999e-02 0.000000000000000e+00 0.000000000000000e+00 -2.000000000000000e-01 0.000000000000000e+00 0.000000000000000e+00 -3.000000000000000e-01 0.000000000000000e+00 0.000000000000000e+00 -4.000000000000000e-01 0.000000000000000e+00 0.000000000000000e+00 -5.000000000000000e-01 0.000000000000000e+00 0.000000000000000e+00 -6.000000000000000e-01 0.000000000000000e+00 0.000000000000000e+00 -7.000000000000001e-01 0.000000000000000e+00 0.000000000000000e+00 -7.999999999999999e-01 0.000000000000000e+00 0.000000000000000e+00 9.000000000000000e-01 9.999999999981467e-02 0.000000000000000e+00 9.000000000000000e-01 1.999999999995579e-01 0.000000000000000e+00 9.000000000000000e-01 2.999999999992664e-01 0.000000000000000e+00 9.000000000000000e-01 3.999999999989749e-01 0.000000000000000e+00 9.000000000000000e-01 4.999999999986943e-01 0.000000000000000e+00 9.000000000000000e-01 5.999999999989468e-01 0.000000000000000e+00 9.000000000000000e-01 6.999999999992100e-01 0.000000000000000e+00 9.000000000000000e-01 7.999999999994734e-01 0.000000000000000e+00 9.000000000000000e-01 8.999999999997368e-01 0.000000000000000e+00 9.999999999999999e-02 0.000000000000000e+00 0.000000000000000e+00 2.000000000000000e-01 0.000000000000000e+00 0.000000000000000e+00 3.000000000000000e-01 0.000000000000000e+00 0.000000000000000e+00 4.000000000000000e-01 0.000000000000000e+00 0.000000000000000e+00 5.000000000000000e-01 0.000000000000000e+00 0.000000000000000e+00 6.000000000000000e-01 0.000000000000000e+00 0.000000000000000e+00 7.000000000000001e-01 0.000000000000000e+00 0.000000000000000e+00 7.999999999999999e-01 0.000000000000000e+00 0.000000000000000e+00 9.999999999999999e-02 1.000000000000000e+00 0.000000000000000e+00 2.000000000000000e-01 1.000000000000000e+00 0.000000000000000e+00 3.000000000000000e-01 1.000000000000000e+00 0.000000000000000e+00 4.000000000000000e-01 1.000000000000000e+00 0.000000000000000e+00 5.000000000000000e-01 1.000000000000000e+00 0.000000000000000e+00 6.000000000000000e-01 1.000000000000000e+00 0.000000000000000e+00 7.000000000000001e-01 1.000000000000000e+00 0.000000000000000e+00 7.999999999999999e-01 1.000000000000000e+00 0.000000000000000e+00 -9.999999999999999e-02 9.999999999981467e-02 0.000000000000000e+00 -2.000000000000000e-01 9.999999999981467e-02 0.000000000000000e+00 -3.000000000000000e-01 9.999999999981467e-02 0.000000000000000e+00 -4.000000000000000e-01 9.999999999981467e-02 0.000000000000000e+00 -5.000000000000000e-01 9.999999999981467e-02 0.000000000000000e+00 -6.000000000000000e-01 9.999999999981467e-02 0.000000000000000e+00 -7.000000000000001e-01 9.999999999981467e-02 0.000000000000000e+00 -7.999999999999999e-01 9.999999999981467e-02 0.000000000000000e+00 -9.999999999999999e-02 1.999999999995579e-01 0.000000000000000e+00 -2.000000000000000e-01 1.999999999995579e-01 0.000000000000000e+00 -3.000000000000000e-01 1.999999999995579e-01 0.000000000000000e+00 -4.000000000000000e-01 1.999999999995579e-01 0.000000000000000e+00 -5.000000000000000e-01 1.999999999995579e-01 0.000000000000000e+00 -6.000000000000000e-01 1.999999999995579e-01 0.000000000000000e+00 -7.000000000000001e-01 1.999999999995579e-01 0.000000000000000e+00 -7.999999999999999e-01 1.999999999995579e-01 0.000000000000000e+00 -9.999999999999999e-02 2.999999999992664e-01 0.000000000000000e+00 -2.000000000000000e-01 2.999999999992664e-01 0.000000000000000e+00 -3.000000000000000e-01 2.999999999992664e-01 0.000000000000000e+00 -4.000000000000000e-01 2.999999999992664e-01 0.000000000000000e+00 -5.000000000000000e-01 2.999999999992664e-01 0.000000000000000e+00 -6.000000000000000e-01 2.999999999992664e-01 0.000000000000000e+00 -7.000000000000001e-01 2.999999999992664e-01 0.000000000000000e+00 -7.999999999999999e-01 2.999999999992664e-01 0.000000000000000e+00 -9.999999999999999e-02 3.999999999989749e-01 0.000000000000000e+00 -2.000000000000000e-01 3.999999999989749e-01 0.000000000000000e+00 -3.000000000000000e-01 3.999999999989749e-01 0.000000000000000e+00 -4.000000000000000e-01 3.999999999989749e-01 0.000000000000000e+00 -5.000000000000000e-01 3.999999999989749e-01 0.000000000000000e+00 -6.000000000000000e-01 3.999999999989749e-01 0.000000000000000e+00 -7.000000000000001e-01 3.999999999989749e-01 0.000000000000000e+00 -7.999999999999999e-01 3.999999999989749e-01 0.000000000000000e+00 -9.999999999999999e-02 4.999999999986943e-01 0.000000000000000e+00 -2.000000000000000e-01 4.999999999986943e-01 0.000000000000000e+00 -3.000000000000000e-01 4.999999999986943e-01 0.000000000000000e+00 -4.000000000000000e-01 4.999999999986943e-01 0.000000000000000e+00 -5.000000000000000e-01 4.999999999986943e-01 0.000000000000000e+00 -6.000000000000000e-01 4.999999999986943e-01 0.000000000000000e+00 -7.000000000000001e-01 4.999999999986943e-01 0.000000000000000e+00 -7.999999999999999e-01 4.999999999986943e-01 0.000000000000000e+00 -9.999999999999999e-02 5.999999999989468e-01 0.000000000000000e+00 -2.000000000000000e-01 5.999999999989468e-01 0.000000000000000e+00 -3.000000000000000e-01 5.999999999989468e-01 0.000000000000000e+00 -4.000000000000000e-01 5.999999999989468e-01 0.000000000000000e+00 -5.000000000000000e-01 5.999999999989468e-01 0.000000000000000e+00 -6.000000000000000e-01 5.999999999989468e-01 0.000000000000000e+00 -7.000000000000001e-01 5.999999999989468e-01 0.000000000000000e+00 -7.999999999999999e-01 5.999999999989468e-01 0.000000000000000e+00 -9.999999999999999e-02 6.999999999992100e-01 0.000000000000000e+00 -2.000000000000000e-01 6.999999999992100e-01 0.000000000000000e+00 -3.000000000000000e-01 6.999999999992100e-01 0.000000000000000e+00 -4.000000000000000e-01 6.999999999992100e-01 0.000000000000000e+00 -5.000000000000000e-01 6.999999999992100e-01 0.000000000000000e+00 -6.000000000000000e-01 6.999999999992100e-01 0.000000000000000e+00 -7.000000000000001e-01 6.999999999992100e-01 0.000000000000000e+00 -7.999999999999999e-01 6.999999999992100e-01 0.000000000000000e+00 -9.999999999999999e-02 7.999999999994734e-01 0.000000000000000e+00 -2.000000000000000e-01 7.999999999994734e-01 0.000000000000000e+00 -3.000000000000000e-01 7.999999999994734e-01 0.000000000000000e+00 -4.000000000000000e-01 7.999999999994734e-01 0.000000000000000e+00 -5.000000000000000e-01 7.999999999994734e-01 0.000000000000000e+00 -6.000000000000000e-01 7.999999999994734e-01 0.000000000000000e+00 -7.000000000000001e-01 7.999999999994734e-01 0.000000000000000e+00 -7.999999999999999e-01 7.999999999994734e-01 0.000000000000000e+00 -9.999999999999999e-02 8.999999999997368e-01 0.000000000000000e+00 -2.000000000000000e-01 8.999999999997368e-01 0.000000000000000e+00 -3.000000000000000e-01 8.999999999997368e-01 0.000000000000000e+00 -4.000000000000000e-01 8.999999999997368e-01 0.000000000000000e+00 -5.000000000000000e-01 8.999999999997368e-01 0.000000000000000e+00 -6.000000000000000e-01 8.999999999997368e-01 0.000000000000000e+00 -7.000000000000001e-01 8.999999999997368e-01 0.000000000000000e+00 -7.999999999999999e-01 8.999999999997368e-01 0.000000000000000e+00 9.999999999999999e-02 9.999999999981467e-02 0.000000000000000e+00 2.000000000000000e-01 9.999999999981467e-02 0.000000000000000e+00 3.000000000000000e-01 9.999999999981467e-02 0.000000000000000e+00 4.000000000000000e-01 9.999999999981467e-02 0.000000000000000e+00 5.000000000000000e-01 9.999999999981467e-02 0.000000000000000e+00 6.000000000000000e-01 9.999999999981467e-02 0.000000000000000e+00 7.000000000000001e-01 9.999999999981467e-02 0.000000000000000e+00 7.999999999999999e-01 9.999999999981467e-02 0.000000000000000e+00 9.999999999999999e-02 1.999999999995579e-01 0.000000000000000e+00 2.000000000000000e-01 1.999
[...]
<PointData Scalars="pressure_p1," Vectors="" Tensors="">
<DataArray type="Float64" Name="pressure_p1" format="ascii">
4.240251080273587e-02 9.181380787758330e-01 3.464111073052462e-01 1.136625860418461e-02 8.244313754306316e-02 2.356517373737638e+00 1.266060032052313e-01 2.363844474135474e-01 3.437796234079919e-01 4.477219458196607e-01 5.471765792768196e-01 6.411532148643906e-01 7.287159582844376e-01 8.089925496335554e-01 8.811820193066937e-01 3.250435083105615e-01 2.966878203858620e-01 2.653694616729471e-01 2.313998958254110e-01 1.951179757913087e-01 1.568858255652237e-01 1.170848578989031e-01 7.611128846777600e-02 3.436975211136076e-02 7.561239593680972e-01 6.841512999803165e-01 6.190290162773016e-01 5.601019432347321e-01 5.067779815880175e-01 4.585211298630205e-01 4.148454977988977e-01 3.753096079063088e-01 3.159034352620468e-02 2.861066222947310e-02 2.591294160052800e-02 2.347501037557580e-02 2.127577337772092e-02 1.929657201824917e-02 1.752219842574863e-02 1.594273781089626e-02 2.380260795739538e-01 5.245442960986678e-01 8.057668009188556e-01 1.078919327411109e+00 1.341283860165315e+00 1.590243691325433e+00 1.823314551949315e+00 2.038172132930688e+00 2.232680728122047e+00 4.999048765086354e-02 5.533916523627715e-02 6.124270049994996e-02 6.777619842965020e-02 7.502151409160092e-02 8.307252570532793e-02 9.204232332554792e-02 1.020780217965478e-01 1.089252229720788e+00 1.203659143991090e+00 1.330109206868705e+00 1.469856075770996e+00 1.624286519248598e+00 1.794931712708316e+00 1.983479672232720e+00 2.191786578104649e+00 8.863493002989126e-02 8.022336748951663e-02 7.261166650834133e-02 6.572718610546670e-02 5.950369136342615e-02 5.388157022484724e-02 4.880785324993071e-02 4.423627910976857e-02 1.781429340024725e-01 1.612036392690887e-01 1.458798679087570e-01 1.320182174442839e-01 1.194809708936313e-01 1.081441090563679e-01 9.789586149029317e-02 8.863516475008636e-02 2.658623240113683e-01 2.405683876756023e-01 2.176859484133044e-01 1.969848448692718e-01 1.782578657104390e-01 1.613180336166911e-01 1.459963189047792e-01 1.321394303222148e-01 3.509135999628143e-01 3.175216390086723e-01 2.873106931996081e-01 2.599773479090768e-01 2.352476134621769e-01 2.128738407951908e-01 1.926319501899253e-01 1.743188674303763e-01 4.324476267046293e-01 3.912938751967631e-01 3.540578374674664e-01 3.203662401053319e-01 2.898813994340750e-01 2.622977659120374e-01 2.373387736294142e-01 2.147539798760847e-01 5.096513352743449e-01 4.611483976065385e-01 4.172605413683929e-01 3.775483756109170e-01 3.416139782569420e-01 3.090970497896401e-01 2.796713985397638e-01 2.530417953558937e-01 5.817549242179516e-01 5.263878385867073e-01 4.762875547886988e-01 4.309527427130458e-01 3.899290881931758e-01 3.528050564498544e-01 3.192079753841404e-01 2.888005958370195e-01 6.480389270388649e-01 5.863604777336270e-01 5.305490964866295e-01 4.800459522593725e-01 4.343445753528419e-01 3.929861124324435e-01 3.555548507099078e-01 3.216743055123316e-01 7.078401703340332e-01 6.404660488222801e-01 5.795024011648048e-01 5.243373944849549e-01 4.744171485263571e-01 4.292399672171499e-01 3.883510095106975e-01 3.513372386383278e-01 1.351537808100820e-01 1.494504872553708e-01 1.652436974565523e-01 1.827047765671952e-01 2.020223711827123e-01 2.234069066847398e-01 2.470955730251279e-01 2.733583434165766e-01 2.686415719647305e-01 2.969462639129664e-01 3.282294415629059e-01 3.628108390492737e-01 4.010456181940468e-01 4.433274972544437e-01 4.900922208549372e-01 5.418190459069309e-01 3.994356231318135e-01 4.414635548688231e-01 4.879169658328060e-01 5.392635198729132e-01 5.960217652897022e-01 6.587652432840030e-01 7.281267672331877e-01 8.048015973387893e-01 5.262240220184279e-01 5.815553665977441e-01 6.427113470266046e-01 7.103045093199040e-01 7.850126798078749e-01 8.675849433587152e-01 9.588480074550533e-01 1.059712639373336e+00 6.477405037501947e-01 7.158225424772717e-01 7.910685463561656e-01 8.742304905724289e-01 9.661395012634149e-01 1.067713842888186e+00 1.179967679855251e+00 1.304020730218165e+00 7.627731829758559e-01 8.429257532054361e-01 9.315098053488500e-01 1.029409405350800e+00 1.137600991785790e+00 1.257163247076051e+00 1.389288138860353e+00 1.535293566687024e+00 8.701750793431963e-01 9.615974820198586e-01 1.062635516483091e+00 1.174296333696243e+00 1.297691813453009e+00 1.434050014770005e+00 1.584728061823230e+00 1.751227498928525e+00 9.688744293215524e-01 1.070653579047667e+00 1.183138444867361e+00 1.307448599498017e+00 1.444819913559939e+00 1.596616936727658e+00 1.764346594733958e+00 1.949674820536634e+00 1.057883554537616e+00 1.169003959981844e+00 1.291816084440610e+00 1.427539705868456e+00 1.577522304560997e+00 1.743251223846657e+00 1.926366559848210e+00 2.128674039362551e+00 
</DataArray>
</PointData>
<CellData Scalars="pressure_p0,piezo_head_p0," Vectors="velocity_p0," Tensors="">
<DataArray type="Float64" Name="pressure_p0" format="ascii">
5.393676646580613e-02 1.636263593793107e-01 2.716199743380897e-01 3.768659344813305e-01 4.783249399399558e-01 5.749901269499242e-01 6.659007388113725e-01 7.501536393034764e-01 8.269146271839765e-01 8.954321328124013e-01 6.324932296123983e-02 3.007174069081351e-02 5.726186813610128e-02 2.723958679318545e-02 5.183724864779534e-02 2.467211350869363e-02 4.692865076469832e-02 2.235005717117798e-02 4.249089357509679e-02 2.025387074314489e-02 3.848255088486081e-02 1.836570676579373e-02 3.486672373097531e-02 1.667043128116500e-02 3.161168343278946e-02 1.515687223250395e-02 2.869224359205404e-02 1.382075541955851e-02 1.593618908991121e-01 1.233230201890644e-01 1.442095615803408e-01 1.116059726836187e-01 1.305029720260951e-01 1.010051081921569e-01 1.181037713818792e-01 9.141584389446404e-02 1.068888401268786e-01 8.274411756540311e-02 9.674753840469584e-02 7.490527729274069e-02 8.758037317061279e-02 6.782343390184405e-02 7.929797175857146e-02 6.143085176156071e-02 7.181969173637764e-02 5.566667965650179e-02 2.538664588864157e-01 2.153398046817382e-01 2.297115152600316e-01 1.948561755600308e-01 2.078613064943429e-01 1.763265026818182e-01 1.880946226098261e-01 1.595640926490904e-01 1.702131571458270e-01 1.444014783312391e-01 1.540383894364167e-01 1.306878509378992e-01 1.394092587881940e-01 1.182871752718883e-01 1.261801386944919e-01 1.070764212553728e-01 1.142186483484626e-01 9.694334339641164e-02 3.458179808294755e-01 3.051924178947550e-01 3.129087340790460e-01 2.761524221929574e-01 2.831361160814415e-01 2.498806343260015e-01 2.562002554172665e-01 2.261125456888394e-01 2.318307764101948e-01 2.046098521725633e-01 2.097836034069560e-01 1.851574728557266e-01 1.898381338512585e-01 1.675609949924342e-01 1.717946758827423e-01 1.516443145916278e-01 1.554719923262005e-01 1.372472609259965e-01 4.343001821273779e-01 3.919826140462558e-01 3.929693241452660e-01 3.546804609910731e-01 3.555741683351410e-01 3.209310667404169e-01 3.217395065676317e-01 2.903956036077291e-01 2.911260896707573e-01 2.627679118144715e-01 2.634271139299801e-01 2.377711933200318e-01 2.383649973271660e-01 2.151550172505105e-01 2.156884386590324e-01 1.946925811927177e-01 1.951697274850756e-01 1.761781769461855e-01 5.184318145823898e-01 4.748450009409232e-01 4.690942120397970e-01 4.296557409848303e-01 4.244517265464932e-01 3.887675680370128e-01 3.840575128476039e-01 3.517708901873225e-01 3.475069617754407e-01 3.182949981576834e-01 3.144337653152385e-01 2.880043713595291e-01 2.845063028685723e-01 2.605952994969589e-01 2.574243539413078e-01 2.357928159826364e-01 2.329161542084255e-01 2.133479380358981e-01 5.973749312713513e-01 5.529538071830574e-01 5.405239828851576e-01 5.003299339705650e-01 4.890810129635402e-01 4.527125742357141e-01 4.425318565009515e-01 4.096253909470754e-01 4.004104792682545e-01 3.706368192696018e-01 3.622946826870440e-01 3.353559944636157e-01 3.278020948906529e-01 3.034289933953165e-01 2.965865200292691e-01 2.745354452051114e-01 2.683347489930554e-01 2.483855626068057e-01 6.703430939813659e-01 6.255305628905595e-01 6.065457752659291e-01 5.659976134786482e-01 5.488164859215423e-01 5.121274039881846e-01 4.965784209243874e-01 4.633812800956474e-01 4.493084161095630e-01 4.192708935100177e-01 4.065323912740120e-01 3.793537938300010e-01 3.678208739777111e-01 3.432292344155691e-01 3.327848822920458e-01 3.105344088356761e-01 3.010724266692988e-01 2.809413496135275e-01 7.366085291556290e-01 6.918512331044204e-01 6.664995382756205e-01 6.260025530652633e-01 6.030607345322969e-01 5.664181481427129e-01 5.456569251654773e-01 5.125014319372925e-01 4.937123729715793e-01 4.637116808448004e-01 4.467055923217091e-01 4.195590529307813e-01 4.041641274541147e-01 3.795997416012651e-01 3.656597084918859e-01 3.434316061084782e-01 3.308039552433164e-01 3.106907685292261e-01 7.955059658348955e-01 7.512512446604366e-01 7.197831141485862e-01 6.797432175352354e-01 6.512699887665179e-01 6.150412035800922e-01 5.892761722336252e-01 5.564946186659927e-01 5.331785582895474e-01 5.035153450010934e-01 4.824134775871126e-01 4.555709954470388e-01 4.364703350251324e-01 4.121790729502132e-01 3.948858689780473e-01 3.729015054677278e-01 3.572383579375855e-01 3.373388952916620e-01 8.345175944119018e-02 4.290085004280519e-02 9.233749276223303e-02 4.751474366852985e-02 1.021332338310001e-01 5.259601775567407e-02 1.129554104619829e-01 5.821298177019077e-02 1.249271219926929e-01 6.443730166156034e-02 1.381842433176966e-01 7.134942415183101e-02 1.528805990327956e-01 7.904415676329257e-02 1.691950809520630e-01 8.764039161134760e-02 1.873451234792717e-01 9.730414490206934e-02 2.089315528763407e-01 1.730458973661363e-01 2.309687553243278e-01 1.913196026153250e-01 2.553204290783686e-01 2.115091341160694e-01 2.822357559109371e-01 2.338263491173760e-01 3.119932305474705e-01 2.585061465155170e-01 3.449022037524725e-01 2.858096225273811e-01 3.813064083954126e-01 3.160280893440932e-01 4.215875162310803e-01 3.494868091437747e-01 4.661652759621756e-01 3.865436597001226e-01 3.323103890730660e-01 3.014641485531945e-01 3.672855465803171e-01 3.332086353104921e-01 4.059439712471544e-01 3.682945669758275e-01 4.486739535558846e-01 4.070771340676497e-01 4.959078405337003e-01 4.499513127556286e-01 5.481249327492229e-01 4.973548300979731e-01 6.058553145652144e-01 5.497717689417991e-01 6.696832996145765e-01 6.077350959194002e-01 7.402483318094373e-01 6.718249117125449e-01 4.523514296358621e-01 4.268569437430096e-01 4.999190706767578e-01 4.717562230976152e-01 5.524959557740468e-01 5.213833644090858e-01 6.106082465317696e-01 5.762363074217703e-01 6.748392452822337e-01 6.368671403413511e-01 7.458343721455162e-01 7.038866161670724e-01 8.243066175016638e-01 7.779690604057081e-01 9.110420358525806e-01 8.598568938794541e-01 1.006904707828067e+00 9.503639042633107e-01 5.678568883681526e-01 5.479694033120166e-01 6.275433507167977e-01 6.055759489279101e-01 6.935125346405815e-01 6.692463601411740e-01 7.664238315149567e-01 7.396175908690363e-01 8.470065219180051e-01 8.173943250209796e-01 9.360666930490052e-01 9.033554338233141e-01 1.034494747443415e+00 9.983609626345598e-01 1.143273518466077e+00 1.103359514929451e+00 1.263487059484726e+00 1.219396056354618e+00 6.776756224210663e-01 6.635931874633898e-01 7.488849091821789e-01 7.333318091610891e-01 8.275870005569933e-01 8.104085363589590e-01 9.145680229700581e-01 8.955933708925597e-01 1.010696317826451e+00 9.897371350505966e-01 1.116931130689793e+00 1.093779831471055e+00 1.234332160757680e+00 1.208759841380217e+00 1.364070231084435e+00 1.335824146849662e+00 1.507439415045331e+00 1.476239802019859e+00 7.807134126790658e-01 7.725757109411684e-01 8.627336630340539e-01 8.537495638945437e-01 9.533825354353694e-01 9.434626052414644e-01 1.053564941982059e+00 1.042610221292182e+00 1.164279595728208e+00 1.152181012818371e+00 1.286629351126311e+00 1.273266915630730e+00 1.421832533813392e+00 1.407074424566300e+00 1.571235830068991e+00 1.554937429069899e+00 1.736329553251608e+00 1.718332181097457e+00 8.759432557505357e-01 8.738305089620481e-01 9.679537948395520e-01 9.656281302344150e-01 1.069644536168330e+00 1.067082099420131e+00 1.182029613794549e+00 1.179203896216299e+00 1.306227771977963e+00 1.303109779299926e+00 1.443474144273787e+00 1.440032393667136e+00 1.595132793300524e+00 1.591333512184304e+00 1.762711002126450e+00 1.758518963766106e+00 1.947877019512072e+00 1.943257422971985e+00 9.624143376388115e-01 9.663468985417497e-01 1.063493724405237e+00 1.067850348660885e+00 1.175212200603810e+00 1.180033765988304e+00 1.298681205049781e+00 1.304013484852890e+00 1.435127734115242e+00 1.441021814497841e+00 1.585906660690281e+00 1.592419367553513e+00 1.752513492988389e+00 1.759708266737591e+00 1.936598365624111e+00 1.944547490838137e+00 2.139982481003848e+00 2.148774017312139e+00 1.039256872375444e+00 1.049196986262516e+00 1.148394564538718e+00 1.159392599879017e+00 1.269029336791827e+00 1.281189131019250e+00 1.402355271685459e+00 1.415794462709049e+00 1.549695298742866e+00 1.564544626284957e+00 1.712511271383613e+00 1.728914995311407e+00 1.892416152338561e+00 1.910532696374319e+00 2.091186486377645e+00 2.111188715536600e+00 2.310771992600477e+00 2.332845929719387e+00 
</DataArray>
<DataArray type="Float64" Name="piezo_head_p0" format="ascii">