<?xml version="1.0"?>
<VTKFile type="UnstructuredGrid" version="0.1" byte_order="LittleEndian">
<UnstructuredGrid>
<Piece NumberOfPoints="231" NumberOfCells="400">
<Points>
<DataArray type="Float64" NumberOfComponents="3" format="ascii">
0.000000000000000e+00 0.000000000000000e+00 0.000000000000000e+00 0.000000000000000e+00 1.000000000000000e+00 0.000000000000000e+00 -9.000000000000000e-01 1.000000000000000e+00 0.000000000000000e+00 -9.000000000000000e-01 0.000000000000000e+00 0.000000000000000e+00 2.000000000000000e-01 0.000000000000000e+00 0.000000000000000e+00 2.000000000000000e-01 1.000000000000000e+00 0.000000000000000e+00 1.100000000000000e+00 0.000000000000000e+00 0.000000000000000e+00 1.100000000000000e+00 1.000000000000000e+00 0.000000000000000e+00 0.000000000000000e+00 9.999999999981467e-02 0.000000000000000e+00 0.000000000000000e+00 1.999999999995579e-01 0.000000000000000e+00 0.000000000000000e+00 2.999999999992664e-01 0.000000000000000e+00 0.000000000000000e+00 3.999999999989749e-01 0.000000000000000e+00 0.000000000000000e+00 4.999999999986943e-01 0.000000000000000e+00 0.000000000000000e+00 5.999999999989468e-01 0.000000000000000e+00 0.000000000000000e+00 6.999999999992100e-01 0.000000000000000e+00 0.000000000000000e+00 7.999999999994734e-01 0.000000000000000e+00 0.000000000000000e+00 8.999999999997368e-01 0.000000000000000e+00 -9.000000000000000e-01 8.999999999997368e-01 0.000000000000000e+00 -9.000000000000000e-01 7.999999999994734e-01 0.000000000000000e+00 -9.000000000000000e-01 6.999999999992100e-01 0.000000000000000e+00 -9.000000000000000e-01 5.999999999989468e-01 0.000000000000000e+00 -9.000000000000000e-01 4.999999999986943e-01 0.000000000000000e+00 -9.000000000000000e-01 3.999999999989749e-01 0.000000000000000e+00 -9.000000000000000e-01 2.999999999992664e-01 0.000000000000000e+00 -9.000000000000000e-01 1.999999999995579e-01 0.000000000000000e+00 -9.000000000000000e-01 9.999999999981467e-02 0.000000000000000e+00 -9.999999999999999e-02 1.000000000000000e+00 0.000000000000000e+00 -2.000000000000000e-01 1.000000000000000e+00 0.000000000000000e+00 -3.000000000000000e-01 1.000000000000000e+00 0.000000000000000e+00 -4.000000000000000e-01 1.000000000000000e+00 0.000000000000000e+00 -5.000000000000000e-01 1.000000000000000e+00 0.000000000000000e+00 -6.000000000000000e-01 1.000000000000000e+00 0.000000000000000e+00 -7.000000000000001e-01 1.000000000000000e+00 0.000000000000000e+00 -7.999999999999999e-01 1.000000000000000e+00 0.000000000000000e+00 -9.999999999999999e-02 0.000000000000000e+00 0.000000000000000e+00 -2.000000000000000e-01 0.000000000000000e+00 0.000000000000000e+00 -3.000000000000000e-01 0.000000000000000e+00 0.000000000000000e+00 -4.000000000000000e-01 0.000000000000000e+00 0.000000000000000e+00 -5.000000000000000e-01 0.000000000000000e+00 0.000000000000000e+00 -6.000000000000000e-01 0.000000000000000e+00 0.000000000000000e+00 -7.000000000000001e-01 0.000000000000000e+00 0.000000000000000e+00 -7.999999999999999e-01 0.000000000000000e+00 0.000000000000000e+00 2.000000000000000e-01 9.999999999981467e-02 0.000000000000000e+00 2.000000000000000e-01 1.999999999995579e-01 0.000000000000000e+00 2.000000000000000e-01 2.999999999992664e-01 0.000000000000000e+00 2.000000000000000e-01 3.999999999989749e-01 0.000000000000000e+00 2.000000000000000e-01 4.999999999986943e-01 0.000000000000000e+00 2.000000000000000e-01 5.999999999989468e-01 0.000000000000000e+00 2.000000000000000e-01 6.999999999992100e-01 0.000000000000000e+00 2.000000000000000e-01 7.999999999994734e-01 0.000000000000000e+00 2.000000000000000e-01 8.999999999997368e-01 0.000000000000000e+00 1.000000000000000e-01 0.000000000000000e+00 0.000000000000000e+00 1.000000000000000e-01 1.000000000000000e+00 0.000000000000000e+00 1.100000000000000e+00 9.999999999981467e-02 0.000000000000000e+00 1.100000000000000e+00 1.999999999995579e-01 0.000000000000000e+00 1.100000000000000e+00 2.999999999992664e-01 0.000000000000000e+00 1.100000000000000e+00 3.999999999989749e-01 0.000000000000000e+00 1.100000000000000e+00 4.999999999986943e-01 0.000000000000000e+00 1.100000000000000e+00 5.999999999989468e-01 0.000000000000000e+00 1.100000000000000e+00 6.999999999992100e-01 0.000000000000000e+00 1.100000000000000e+00 7.999999999994734e-01 0.000000000000000e+00 1.100000000000000e+00 8.999999999997368e-01 0.000000000000000e+00 3.000000000000000e-01 0.000000000000000e+00 0.000000000000000e+00 4.000000000000000e-01 0.000000000000000e+00 0.000000000000000e+00 5.000000000000000e-01 0.000000000000000e+00 0.000000000000000e+00 6.000000000000000e-01 0.000000000000000e+00 0.000000000000000e+00 7.000000000000000e-01 0.000000000000000e+00 0.000000000000000e+00 8.000000000000000e-01 0.000000000000000e+00 0.000000000000000e+00 9.000000000000001e-01 0.000000000000000e+00 0.000000000000000e+00 1.000000000000000e+00 0.000000000000000e+00 0.000000000000000e+00 3.000000000000000e-01 1.000000000000000e+00 0.000000000000000e+00 4.000000000000000e-01 1.000000000000000e+00 0.000000000000000e+00 5.000000000000000e-01 1.000000000000000e+00 0.000000000000000e+00 6.000000000000000e-01 1.000000000000000e+00 0.000000000000000e+00 7.000000000000000e-01 1.000000000000000e+00 0.000000000000000e+00 8.000000000000000e-01 1.000000000000000e+00 0.000000000000000e+00 9.000000000000001e-01 1.000000000000000e+00 0.000000000000000e+00 1.000000000000000e+00 1.000000000000000e+00 0.000000000000000e+00 -9.999999999999999e-02 9.999999999981467e-02 0.000000000000000e+00 -2.000000000000000e-01 9.999999999981467e-02 0.000000000000000e+00 -3.000000000000000e-01 9.999999999981467e-02 0.000000000000000e+00 -4.000000000000000e-01 9.999999999981467e-02 0.000000000000000e+00 -5.000000000000000e-01 9.999999999981467e-02 0.000000000000000e+00 -6.000000000000000e-01 9.999999999981467e-02 0.000000000000000e+00 -7.000000000000001e-01 9.999999999981467e-02 0.000000000000000e+00 -7.999999999999999e-01 9.999999999981467e-02 0.000000000000000e+00 -9.999999999999999e-02 1.999999999995579e-01 0.000000000000000e+00 -2.000000000000000e-01 1.999999999995579e-01 0.000000000000000e+00 -3.000000000000000e-01 1.999999999995579e-01 0.000000000000000e+00 -4.000000000000000e-01 1.999999999995579e-01 0.000000000000000e+00 -5.000000000000000e-01 1.999999999995579e-01 0.000000000000000e+00 -6.000000000000000e-01 1.999999999995579e-01 0.000000000000000e+00 -7.000000000000001e-01 1.999999999995579e-01 0.000000000000000e+00 -7.999999999999999e-01 1.999999999995579e-01 0.000000000000000e+00 -9.999999999999999e-02 2.999999999992664e-01 0.000000000000000e+00 -2.000000000000000e-01 2.999999999992664e-01 0.000000000000000e+00 -3.000000000000000e-01 2.999999999992664e-01 0.000000000000000e+00 -4.000000000000000e-01 2.999999999992664e-01 0.000000000000000e+00 -5.000000000000000e-01 2.999999999992664e-01 0.000000000000000e+00 -6.000000000000000e-01 2.999999999992664e-01 0.000000000000000e+00 -7.000000000000001e-01 2.999999999992664e-01 0.000000000000000e+00 -7.999999999999999e-01 2.999999999992664e-01 0.000000000000000e+00 -9.999999999999999e-02 3.999999999989749e-01 0.000000000000000e+00 -2.000000000000000e-01 3.999999999989749e-01 0.000000000000000e+00 -3.000000000000000e-01 3.999999999989749e-01 0.000000000000000e+00 -4.000000000000000e-01 3.999999999989749e-01 0.000000000000000e+00 -5.000000000000000e-01 3.999999999989749e-01 0.000000000000000e+00 -6.000000000000000e-01 3.999999999989749e-01 0.000000000000000e+00 -7.000000000000001e-01 3.999999999989749e-01 0.000000000000000e+00 -7.999999999999999e-01 3.999999999989749e-01 0.000000000000000e+00 -9.999999999999999e-02 4.999999999986943e-01 0.000000000000000e+00 -2.000000000000000e-01 4.999999999986943e-01 0.000000000000000e+00 -3.000000000000000e-01 4.999999999986943e-01 0.000000000000000e+00 -4.000000000000000e-01 4.999999999986943e-01 0.000000000000000e+00 -5.000000000000000e-01 4.999999999986943e-01 0.000000000000000e+00 -6.000000000000000e-01 4.999999999986943e-01 0.000000000000000e+00 -7.000000000000001e-01 4.999999999986943e-01 0.000000000000000e+00 -7.999999999999999e-01 4.999999999986943e-01 0.000000000000000e+00 -9.999999999999999e-02 5.999999999989468e-01 0.000000000000000e+00 -2.000000000000000e-01 5.999999999989468e-01 0.000000000000000e+00 -3.000000000000000e-01 5.999999999989468e-01 0.000000000000000e+00 -4.000000000000000e-01 5.999999999989468e-01 0.000000000000000e+00 -5.000000000000000e-01 5.999999999989468e-01 0.000000000000000e+00 -6.000000000000000e-01 5.999999999989468e-01 0.000000000000000e+00 -7.000000000000001e-01 5.999999999989468e-01 0.000000000000000e+00 -7.999999999999999e-01 5.999999999989468e-01 0.000000000000000e+00 -9.999999999999999e-02 6.999999999992100e-01 0.000000000000000e+00 -2.000000000000000e-01 6.999999999992100e-01 0.000000000000000e+00 -3.000000000000000e-01 6.999999999992100e-01 0.000000000000000e+00 -4.000000000000000e-01 6.999999999992100e-01 0.000000000000000e+00 -5.000000000000000e-01 6.999999999992100e-01 0.000000000000000e+00 -6.000000000000000e-01 6.999999999992100e-01 0.000000000000000e+00 -7.000000000000001e-01 6.999999999992100e-01 0.000000000000000e+00 -7.999999999999999e-01 6.999999999992100e-01 0.000000000000000e+00 -9.999999999999999e-02 7.999999999994734e-01 0.000000000000000e+00 -2.000000000000000e-01 7.999999999994734e-01 0.000000000000000e+00 -3.000000000000000e-01 7.999999999994734e-01 0.000000000000000e+00 -4.000000000000000e-01 7.999999999994734e-01 0.000000000000000e+00 -5.000000000000000e-01 7.999999999994734e-01 0.000000000000000e+00 -6.000000000000000e-01 7.999999999994734e-01 0.000000000000000e+00 -7.000000000000001e-01 7.999999999994734e-01 0.000000000000000e+00 -7.999999999999999e-01 7.999999999994734e-01 0.000000000000000e+00 -9.999999999999999e-02 8.999999999997368e-01 0.000000000000000e+00 -2.000000000000000e-01 8.999999999997368e-01 0.000000000000000e+00 -3.000000000000000e-01 8.999999999997368e-01 0.000000000000000e+00 -4.000000000000000e-01 8.999999999997368e-01 0.000000000000000e+00 -5.000000000000000e-01 8.999999
[...]
<PointData Scalars="pressure_p1," Vectors="" Tensors="">
<DataArray type="Float64" Name="pressure_p1" format="ascii">
4.078704837332248e-02 8.260026592274485e-01 3.464119483791419e-01 1.136926560636998e-02 4.525617431897233e-02 9.852940011571163e-01 8.244058352537958e-02 2.356505513673504e+00 1.172412379332946e-01 2.158452789278960e-01 3.122837981707918e-01 4.055932505415863e-01 4.948417433118895e-01 5.791381627717445e-01 6.576408919370941e-01 7.295660456957710e-01 7.941951518414821e-01 3.250443739709392e-01 2.966889429955600e-01 2.653709571344793e-01 2.314018462303702e-01 1.951204229059051e-01 1.568887661856061e-01 1.170882410021472e-01 7.611501571747767e-02 3.437368438067280e-02 7.560833243223190e-01 6.841316298608007e-01 6.190215488393819e-01 5.601014020211892e-01 5.067809153786509e-01 4.585252059706872e-01 4.148491551951161e-01 3.753118684151127e-01 3.173696445241301e-02 2.871975656635932e-02 2.599555112483842e-02 2.353745352394060e-02 2.132195364886863e-02 1.932898477018558e-02 1.754242217887958e-02 1.595169123119366e-02 1.223116992663107e-01 2.430566333528359e-01 3.613602083856174e-01 4.760409688588208e-01 5.859542730515751e-01 6.900034275495680e-01 7.871503538755493e-01 8.764256920122345e-01 9.569382451781125e-01 4.093186285630029e-02 8.915455826989507e-01 2.380226199329240e-01 5.245403890615375e-01 8.057621384009988e-01 1.078913686063437e+00 1.341277118775971e+00 1.590235835986381e+00 1.823305672484321e+00 2.038162412940695e+00 2.232670428999193e+00 5.004506801018843e-02 5.535044251029705e-02 6.123110118611904e-02 6.775414134778217e-02 7.499699910818418e-02 8.305080720559929e-02 9.202678148395999e-02 1.020706432747127e-01 1.088893347203608e+00 1.203377255850655e+00 1.329887000392028e+00 1.469682446676982e+00 1.624153939950609e+00 1.794835001997854e+00 1.983415333333603e+00 2.191752411913685e+00 8.877947392885005e-02 8.033279273808813e-02 7.269537801722355e-02 6.579099487663154e-02 5.955134674582752e-02 5.391553477016015e-02 4.882972079745252e-02 4.424700923887200e-02 1.782605319709329e-01 1.612982209504088e-01 1.459546483126464e-01 1.320763465050457e-01 1.195249291902808e-01 1.081756994312083e-01 9.791631680389766e-02 8.864525085067086e-02 2.659527574483495e-01 2.406449107798714e-01 2.177486477778214e-01 1.970348136405520e-01 1.782963240789846e-01 1.613460169604534e-01 1.460145961362320e-01 1.321485022689279e-01 3.509798382061446e-01 3.175800169428608e-01 2.873602183781827e-01 2.600179362003337e-01 2.352795365246400e-01 2.128974481953853e-01 1.926475485116530e-01 1.743266750630419e-01 4.324924492664659e-01 3.913351004073051e-01 3.540942725917854e-01 3.203971762580359e-01 2.899064376239187e-01 2.623166907848579e-01 2.373514746520184e-01 2.147604063314771e-01 5.096765845521931e-01 4.611736628283378e-01 4.172845953238472e-01 3.775700586163253e-01 3.416323469283823e-01 3.091114026683033e-01 2.796812529802559e-01 2.530468549341478e-01 5.817615343672270e-01 5.263983710300195e-01 4.763003872589701e-01 4.309661159550625e-01 3.899414888050532e-01 3.528153199798234e-01 3.192152796666228e-01 2.888044244276604e-01 6.480274385537595e-01 5.863578996655261e-01 5.305524667269546e-01 4.800525291399202e-01 4.343521723569584e-01 3.929931087793254e-01 3.555601212787629e-01 3.216771473271824e-01 7.078123469240603e-01 6.404533223513713e-01 5.794990508434180e-01 5.243393615207333e-01 4.744215627035710e-01 4.292448215017905e-01 3.883549493419435e-01 3.513394279605624e-01 1.106568239436485e-01 2.199138163117085e-01 3.269630446919995e-01 4.307350817418656e-01 5.301937470235344e-01 6.243462307286468e-01 7.122527824626562e-01 7.930358839951134e-01 8.658888255774713e-01 1.352011867260254e-01 1.494577667492616e-01 1.652290835761398e-01 1.826800248556255e-01 2.019953009829767e-01 2.233827601108418e-01 2.470777879875909e-01 2.733490062767845e-01 2.686408094476333e-01 2.969252310728004e-01 3.281969316286423e-01 3.627743084677073e-01 4.010107049309948e-01 4.432982412337322e-01 4.900713703743878e-01 5.418083047991171e-01 3.993801866388105e-01 4.414054164656578e-01 4.878591033979239e-01 5.392095724555768e-01 5.959749690395787e-01 6.587281295187117e-01 7.281011474770969e-01 8.047886299475996e-01 5.261143122563322e-01 5.814571447531146e-01 6.426244930418613e-01 7.102299089171539e-01 7.849514692530946e-01 8.675381603245036e-01 9.588164600677477e-01 1.059696872785411e+00 6.475789487747202e-01 7.156843572487858e-01 7.909518150994609e-01 8.741341009182900e-01 9.660628387313838e-01 1.067656582458732e+00 1.179929659684275e+00 1.304001880860911e+00 7.625628525425591e-01 8.427495203682938e-01 9.313643091894388e-01 1.029291840925741e+00 1.137509202296034e+00 1.257095671095427e+00 1.389243715350471e+00 1.535271647750218e+00 8.699195134776839e-01 9.613865624924397e-01 1.062464060364339e+00 1.174159751299312e+00 1.297586458431720e+00 1.433973184276595e+00 1.584677882872064e+00 1.751202806152755e+00 9.685782850001114e-01 1.070413155759336e+00 1.182945618476084e+00 1.307296645475375e+00 1.444703695854870e+00 1.596532724707093e+00 1.764291825708327e+00 1.949647902302730e+00 1.057554778751113e+00 1.168742157068600e+00 1.291608612305157e+00 1.427377516271143e+00 1.577398954805210e+00 1.743162192988484e+00 1.926308792951317e+00 2.128645650652476e+00 
</DataArray>
</PointData>
<CellData Scalars="pressure_p0,piezo_head_p0," Vectors="velocity_p0," Tensors="">
<DataArray type="Float64" Name="pressure_p0" format="ascii">
6.343682519361016e-02 3.024311395239207e-02 5.739831461386700e-02 2.736524198460019e-02 5.193987407786826e-02 2.476684202965158e-02 4.700671938471013e-02 2.242196104746436e-02 4.254991962555463e-02 2.030782872659121e-02 3.852601968057341e-02 1.840481360187817e-02 3.489688624629157e-02 1.669667263984620e-02 3.162996129348217e-02 1.517147130597455e-02 2.869944639926370e-02 1.382435682316333e-02 1.595067134363723e-01 1.234690503397576e-01 1.443261045089310e-01 1.117195053175125e-01 1.305948860298567e-01 1.010931818759103e-01 1.181754596786300e-01 9.148373510157712e-02 1.069438325241155e-01 8.279552914169416e-02 9.678840317232083e-02 7.494275151253006e-02 8.760889365862340e-02 6.784867246980701e-02 7.931531883339121e-02 6.144492740437739e-02 7.182654631728441e-02 5.567016498467257e-02 2.539746146731678e-01 2.154536591867537e-01 2.298045039555086e-01 1.949505470696541e-01 2.079381058538809e-01 1.764026450547793e-01 1.881564007757345e-01 1.596242683411335e-01 1.702615476198705e-01 1.444478012259892e-01 1.540748668259030e-01 1.307219908366700e-01 1.394349663824406e-01 1.183103383224220e-01 1.261958740641425e-01 1.070894008570185e-01 1.142248911520649e-01 9.694657320973235e-02 3.458963765789256e-01 3.052774187101412e-01 3.129791907860017e-01 2.762263787194921e-01 2.831966326543695e-01 2.499425829323506e-01 2.562504899505139e-01 2.261628919821311e-01 2.318710903536973e-01 2.046494165844149e-01 2.098145501289598e-01 1.851870722857081e-01 1.898602309810840e-01 1.675812891261741e-01 1.718083198886722e-01 1.516557644915338e-01 1.554774340946352e-01 1.372501273617995e-01 4.343537374680460e-01 3.920428701602771e-01 3.930192499551884e-01 3.547349661657876e-01 3.556187440270562e-01 3.209784159729755e-01 3.217778360182495e-01 2.904353000706136e-01 2.911577737154484e-01 2.627999008438291e-01 2.634520123551666e-01 2.377955925955793e-01 2.383830875242801e-01 2.151719814050437e-01 2.156997404148470e-01 1.947022406211574e-01 1.951742660085493e-01 1.761806129211475e-01 5.184633353804451e-01 4.748834345625237e-01 4.691253275399414e-01 4.296921998105457e-01 4.244812574806869e-01 3.888008147232922e-01 3.840843363802567e-01 3.517999914836664e-01 3.475301561349453e-01 3.183192941248367e-01 3.144526380521749e-01 2.880234158478444e-01 2.845203663462094e-01 2.606088032773716e-01 2.574332882380702e-01 2.358006036670115e-01 2.329197753280015e-01 2.133499200200269e-01 5.973853586660944e-01 5.529719069677095e-01 5.405374673435056e-01 5.003495837907864e-01 4.890966219755446e-01 4.527326516261871e-01 4.425480958872092e-01 4.096445570161175e-01 4.004258763919347e-01 3.706538683242435e-01 3.623080173725916e-01 3.353699733938188e-01 3.278124515704541e-01 3.034392121897838e-01 2.965932708632970e-01 2.745414507496355e-01 2.683375213469662e-01 2.483871092918542e-01 6.703317668290829e-01 6.255285588626552e-01 6.065425611924166e-01 5.660015767586575e-01 5.488196671907561e-01 5.121356509745278e-01 4.965855488011091e-01 4.633917166303664e-01 4.493172361730112e-01 4.192816487621794e-01 4.065411034757929e-01 3.793633972134524e-01 3.678281516997197e-01 3.432366213383378e-01 3.327898222977085e-01 3.105388778498928e-01 3.010744935338074e-01 2.809425184615810e-01 7.365740100825954e-01 6.918287778543869e-01 6.664813434063022e-01 6.259925134066420e-01 6.030539367939564e-01 5.664166588829043e-01 5.456571959534792e-01 5.125050097686614e-01 4.937164160232393e-01 4.637176128806859e-01 4.467110086578850e-01 4.195653453594926e-01 4.041692294549548e-01 3.796049981002385e-01 3.656633730940276e-01 3.434349208500305e-01 3.308055234786050e-01 3.106916507979399e-01 7.954501804459917e-01 7.512101769259794e-01 7.197548655562341e-01 6.797230401306209e-01 6.512575406253054e-01 6.150334613818029e-01 5.892728821956343e-01 5.564940506807154e-01 5.331802233086129e-01 5.035184476324476e-01 4.824172856775894e-01 4.555753732436327e-01 4.364743843682166e-01 4.121831048531225e-01 3.948889171448574e-01 3.729041566520662e-01 3.572396818267577e-01 3.373396088662749e-01 6.838455827256783e-02 3.516182369060820e-02 7.558912124556745e-02 3.887507250053212e-02 1.710650981844401e-01 1.416841340875245e-01 1.890671774475533e-01 1.565991205515210e-01 2.720272454516157e-01 2.467812398976056e-01 3.006450247174566e-01 2.727466803848812e-01 3.702620304249920e-01 3.494026997375194e-01 4.092078561049405e-01 3.861571347459644e-01 4.647882402858718e-01 4.485234088748959e-01 5.136716124751334e-01 4.956979672180206e-01 5.546620335289585e-01 5.431536456306112e-01 6.129935677717236e-01 6.002758139970156e-01 6.389861699952878e-01 6.323487457708636e-01 7.061824946268080e-01 6.988471123993351e-01 7.169187818785898e-01 7.152183293664331e-01 7.923083281627671e-01 7.904282634881530e-01 7.876816103016782e-01 7.909350015695302e-01 8.705112423456093e-01 8.741052177588400e-01 8.505676364880465e-01 8.587424517102142e-01 9.400100592971958e-01 9.490423965610393e-01 8.355927115885567e-02 4.298747866223390e-02 9.237760100059528e-02 4.754347717781797e-02 1.021364538696935e-01 5.259339109017681e-02 1.129393499555261e-01 5.819455542470250e-02 1.249028238187426e-01 6.441291794940128e-02 1.381589382533314e-01 7.132553410086769e-02 1.528590643281672e-01 7.902498643304162e-02 1.691803763778648e-01 8.762857739696378e-02 1.873390057261573e-01 9.730108602551210e-02 2.089694656426753e-01 1.730905952330234e-01 2.309735940984692e-01 1.913265553738350e-01 2.553032774501015e-01 2.114937109682201e-01 2.822069120942592e-01 2.337998208911652e-01 3.119605614460758e-01 2.584764519259288e-01 3.448713711621950e-01 2.857822566927377e-01 3.812813392396527e-01 3.160067572992042e-01 4.215707919735471e-01 3.494738587001713e-01 4.661583998837566e-01 3.865403480484632e-01 3.322778198656999e-01 3.014492263444121e-01 3.672440323004713e-01 3.331784381162275e-01 4.058961497379651e-01 3.682550765176604e-01 4.486244595253245e-01 4.070345652457755e-01 4.958611387091060e-01 4.499108121703802e-01 5.480846457097173e-01 4.973202834449089e-01 6.058241294946795e-01 5.497459273707996e-01 6.696630523928608e-01 6.077197520559535e-01 7.402401152972873e-01 6.718210409051520e-01 4.522527568021759e-01 4.267811916434416e-01 4.998285654997227e-01 4.716828942290007e-01 5.524128296759958e-01 5.213135917404348e-01 6.105336375600064e-01 5.761725514039192e-01 6.747748881553512e-01 6.368119480649392e-01 7.457819434729411e-01 7.038421375457509e-01 8.242674806365355e-01 7.779369166831513e-01 9.110171728059657e-01 8.598381812476936e-01 1.006894721767867e+00 9.503592325410721e-01 5.676967857383461e-01 5.478355112544038e-01 6.274046432203040e-01 6.054583554159265e-01 6.933929659063235e-01 6.691438448112045e-01 7.663223728834019e-01 7.395301005645865e-01 8.469228328794338e-01 8.173222911397825e-01 9.360007593902440e-01 9.032994019900820e-01 1.034446676772641e+00 9.983214205684390e-01 1.143243436426685e+00 1.103336823710673e+00 1.263475061530903e+00 1.219390428394183e+00 6.774581304561503e-01 6.634045307404330e-01 7.487002557372617e-01 7.331711713693743e-01 8.274320178461210e-01 8.102733315241970e-01 9.144400551884837e-01 8.954817149037901e-01 1.010593311089328e+00 9.896477139398845e-01 1.116851584436635e+00 1.093711758706768e+00 1.234275030637878e+00 1.208712539890313e+00 1.364034834598090e+00 1.335797264632884e+00 1.507425359973523e+00 1.476233158561006e+00 7.804419125774058e-01 7.723356263412766e-01 8.625062314266074e-01 8.535484677973303e-01 9.531947945525997e-01 9.432965950128921e-01 1.053412518935311e+00 1.042475713587049e+00 1.164158771853039e+00 1.152075091009782e+00 1.286537236629424e+00 1.273187379007421e+00 1.421767026744388e+00 1.407019715653853e+00 1.571195511354619e+00 1.554906536370332e+00 1.736313587102224e+00 1.718324559210922e+00 8.756207938000127e-01 8.735423944279438e-01 9.676879628390691e-01 9.653904784656937e-01 1.069428410002274e+00 1.066888867142926e+00 1.181856454147051e+00 1.179049453421675e+00 1.306092020758031e+00 1.302989557504728e+00 1.443371563483562e+00 1.439942950659249e+00 1.595060328355579e+00 1.591272407347232e+00 1.762666596973624e+00 1.758484605983585e+00 1.947859462505491e+00 1.943248949743579e+00 9.620449716207301e-01 9.660152094165905e-01 1.063196416127302e+00 1.067582184494454e+00 1.174974428470245e+00 1.179818941671344e+00 1.298492866892492e+00 1.303843675451915e+00 1.434981293548393e+00 1.440890734928133e+00 1.585796668191134e+00 1.592322458777529e+00 1.752436126220637e+00 1.759642357092153e+00 1.936551085678710e+00 1.944510530473047e+00 2.139963800037273e+00 2.148764898074952e+00 1.038851434209978e+00 1.048831040985051e+00 1.148078301579079e+00 1.159104108424115e+00 1.268780020858811e+00 1.280961039595933e+00 1.402159291404104e+00 1.415615571786387e+00 1.549543618351815e+00 1.564407247978280e+00 1.712397689511857e+00 1.728813792430490e+00 1.892336422657021e+00 1.910464031770696e+00 2.091137819483184e+00 2.111150260741389e+00 2.310752761429105e+00 2.332836430417400e+00 
</DataArray>
<DataArray type="Float64" Name="piezo_head_p0" format="ascii">